ITEM: TIMESTEP
0
ITEM: NUMBER OF ATOMS
38
ITEM: BOX BOUNDS
-3.6151 3.6151
-3.6151 3.6151
-0.0001 3.6151
ITEM: ATOMS id x y z 
1 -3.615 -3.615 0 
2 -1.8075 -1.8075 0 
3 -1.8075 -3.615 1.8075 
4 -3.615 -1.8075 1.8075 
26 -3.615 -3.615 3.615 
27 -1.8075 -1.8075 3.615 
5 0 -3.615 0 
6 1.8075 -1.8075 0 
7 1.8075 -3.615 1.8075 
8 0 -1.8075 1.8075 
9 3.615 -3.615 0 
10 3.615 -1.8075 1.8075 
28 0 -3.615 3.615 
29 1.8075 -1.8075 3.615 
30 3.615 -3.615 3.615 
11 -3.615 0 0 
12 -1.8075 1.8075 0 
13 -1.8075 0 1.8075 
14 -3.615 1.8075 1.8075 
21 -3.615 3.615 0 
22 -1.8075 3.615 1.8075 
31 -3.615 0 3.615 
32 -1.8075 1.8075 3.615 
36 -3.615 3.615 3.615 
15 0 0 0 
16 1.8075 1.8075 0 
17 1.8075 0 1.8075 
18 0 1.8075 1.8075 
19 3.615 0 0 
20 3.615 1.8075 1.8075 
23 0 3.615 0 
24 1.8075 3.615 1.8075 
25 3.615 3.615 0 
33 0 0 3.615 
34 1.8075 1.8075 3.615 
35 3.615 0 3.615 
37 0 3.615 3.615 
38 3.615 3.615 3.615 
