ITEM: TIMESTEP
0
ITEM: NUMBER OF ATOMS
38
ITEM: BOX BOUNDS
-1.0001 1.0001
-1.0001 1.0001
-0.0001 1.0001
ITEM: ATOMS id x y z 
1 -1 -1 0 
2 -0.5 -0.5 0 
3 -0.5 -1 0.5 
4 -1 -0.5 0.5 
5 0 -1 0 
6 0.5 -0.5 0 
7 0.5 -1 0.5 
8 0 -0.5 0.5 
9 1 -1 0 
10 1 -0.5 0.5 
11 -1 0 0 
12 -0.5 0.5 0 
13 -0.5 0 0.5 
14 -1 0.5 0.5 
15 0 0 0 
16 0.5 0.5 0 
17 0.5 0 0.5 
18 0 0.5 0.5 
19 1 0 0 
20 1 0.5 0.5 
21 -1 1 0 
22 -0.5 1 0.5 
23 0 1 0 
24 0.5 1 0.5 
25 1 1 0 
26 -1 -1 1 
27 -0.5 -0.5 1 
28 0 -1 1 
29 0.5 -0.5 1 
30 1 -1 1 
31 -1 0 1 
32 -0.5 0.5 1 
33 0 0 1 
34 0.5 0.5 1 
35 1 0 1 
36 -1 1 1 
37 0 1 1 
38 1 1 1 
